Program Version,EnergyPlus, Version 8.9.0-eba93e8e1b, YMD=2021.12.14 01:28
1,5,Environment Title[],Latitude[deg],Longitude[deg],Time Zone[],Elevation[m]
2,8,Day of Simulation[],Month[],Day of Month[],DST Indicator[1=yes 0=no],Hour[],StartMinute[],EndMinute[],DayType
3,5,Cumulative Day of Simulation[],Month[],Day of Month[],DST Indicator[1=yes 0=no],DayType  ! When Daily Report Variables Requested
4,2,Cumulative Days of Simulation[],Month[]  ! When Monthly Report Variables Requested
5,1,Cumulative Days of Simulation[] ! When Run Period Report Variables Requested
6,1,Calendar Year of Simulation[] ! When Annual Report Variables Requested
7,9,Environment,Site Outdoor Air Drybulb Temperature [C] !Monthly [Value,Min,Day,Hour,Minute,Max,Day,Hour,Minute]
8,1,Environment,Site Outdoor Air Wetbulb Temperature [C] !TimeStep
End of Data Dictionary
1,RUN PERIOD 1,  25.07, 121.55,   8.00,   6.00
2,1, 1, 1, 0, 1, 0.00,10.00,Sunday
8,13.413622418783812
2,1, 1, 1, 0, 1,10.00,20.00,Sunday
8,13.222998610045075
2,1, 1, 1, 0, 1,20.00,30.00,Sunday
8,13.032707488690797
2,1, 1, 1, 0, 1,30.00,40.00,Sunday
8,12.842747315625039
2,1, 1, 1, 0, 1,40.00,50.00,Sunday
8,12.653119545408897
2,1, 1, 1, 0, 1,50.00,60.00,Sunday
8,12.463838739626567
2,1, 1, 1, 0, 2, 0.00,10.00,Sunday
8,12.545305378357844
2,1, 1, 1, 0, 2,10.00,20.00,Sunday
8,12.62684714314096
2,1, 1, 1, 0, 2,20.00,30.00,Sunday
8,12.708448732929274
2,1, 1, 1, 0, 2,30.00,40.00,Sunday
8,12.790137245244424
2,1, 1, 1, 0, 2,40.00,50.00,Sunday
8,12.87189269777735
2,1, 1, 1, 0, 2,50.00,60.00,Sunday
8,12.953710286366594
2,1, 1, 1, 0, 3, 0.00,10.00,Sunday
8,13.002397276471367
2,1, 1, 1, 0, 3,10.00,20.00,Sunday
8,13.051100710669428
2,1, 1, 1, 0, 3,20.00,30.00,Sunday
8,13.099834589461372
2,1, 1, 1, 0, 3,30.00,40.00,Sunday
8,13.148598665366006
2,1, 1, 1, 0, 3,40.00,50.00,Sunday
8,13.197392583471443
2,1, 1, 1, 0, 3,50.00,60.00,Sunday
8,13.246211536806542
2,1, 1, 1, 0, 4, 0.00,10.00,Sunday
8,13.279649337748947
2,1, 1, 1, 0, 4,10.00,20.00,Sunday
8,13.313111124569389
2,1, 1, 1, 0, 4,20.00,30.00,Sunday
8,13.346571475454646
2,1, 1, 1, 0, 4,30.00,40.00,Sunday
8,13.38003006627014
2,1, 1, 1, 0, 4,40.00,50.00,Sunday
8,13.413499804328375
2,1, 1, 1, 0, 4,50.00,60.00,Sunday
8,13.446980870725425
2,1, 1, 1, 0, 5, 0.00,10.00,Sunday
8,13.462569429959736
2,1, 1, 1, 0, 5,10.00,20.00,Sunday
8,13.478159470507368
2,1, 1, 1, 0, 5,20.00,30.00,Sunday
8,13.493744886657398
2,1, 1, 1, 0, 5,30.00,40.00,Sunday
8,13.509331944797904
2,1, 1, 1, 0, 5,40.00,50.00,Sunday
8,13.5249216588116
2,1, 1, 1, 0, 5,50.00,60.00,Sunday
8,13.540505600957085
2,1, 1, 1, 0, 6, 0.00,10.00,Sunday
8,13.522693417151942
2,1, 1, 1, 0, 6,10.00,20.00,Sunday
8,13.504876224403894
2,1, 1, 1, 0, 6,20.00,30.00,Sunday
8,13.487039912192559
2,1, 1, 1, 0, 6,30.00,40.00,Sunday
8,13.469198566537424
2,1, 1, 1, 0, 6,40.00,50.00,Sunday
8,13.45134497198823
2,1, 1, 1, 0, 6,50.00,60.00,Sunday
8,13.433472164781487
2,1, 1, 1, 0, 7, 0.00,10.00,Sunday
8,13.462313995386005
2,1, 1, 1, 0, 7,10.00,20.00,Sunday
8,13.491084609142775
2,1, 1, 1, 0, 7,20.00,30.00,Sunday
8,13.519791595416147
2,1, 1, 1, 0, 7,30.00,40.00,Sunday
8,13.548430429193229
2,1, 1, 1, 0, 7,40.00,50.00,Sunday
8,13.577004537802804
2,1, 1, 1, 0, 7,50.00,60.00,Sunday
8,13.605519650430115
2,1, 1, 1, 0, 8, 0.00,10.00,Sunday
8,13.432759741421505
2,1, 1, 1, 0, 8,10.00,20.00,Sunday
8,13.260177341451137
2,1, 1, 1, 0, 8,20.00,30.00,Sunday
8,13.087775127437882
2,1, 1, 1, 0, 8,30.00,40.00,Sunday
8,12.915555647912628
2,1, 1, 1, 0, 8,40.00,50.00,Sunday
8,12.743516542214144
2,1, 1, 1, 0, 8,50.00,60.00,Sunday
8,12.571653024687969
2,1, 1, 1, 0, 9, 0.00,10.00,Sunday
8,12.737525365234495
2,1, 1, 1, 0, 9,10.00,20.00,Sunday
8,12.89959775103102
2,1, 1, 1, 0, 9,20.00,30.00,Sunday
8,13.057815330409863
2,1, 1, 1, 0, 9,30.00,40.00,Sunday
8,13.212086773733624
2,1, 1, 1, 0, 9,40.00,50.00,Sunday
8,13.362366177513872
2,1, 1, 1, 0, 9,50.00,60.00,Sunday
8,13.508573025239818
2,1, 1, 1, 0,10, 0.00,10.00,Sunday
8,13.508573025239818
2,1, 1, 1, 0,10,10.00,20.00,Sunday
8,13.508573025239818
2,1, 1, 1, 0,10,20.00,30.00,Sunday
8,13.508573025239818
2,1, 1, 1, 0,10,30.00,40.00,Sunday
8,13.508573025239818
2,1, 1, 1, 0,10,40.00,50.00,Sunday
8,13.508573025239818
2,1, 1, 1, 0,10,50.00,60.00,Sunday
8,13.508573025239818
2,1, 1, 1, 0,11, 0.00,10.00,Sunday
8,13.497799538449751
2,1, 1, 1, 0,11,10.00,20.00,Sunday
8,13.486966161315216
2,1, 1, 1, 0,11,20.00,30.00,Sunday
8,13.476098691646945
2,1, 1, 1, 0,11,30.00,40.00,Sunday
8,13.465159870323595
2,1, 1, 1, 0,11,40.00,50.00,Sunday
8,13.454180921140834
2,1, 1, 1, 0,11,50.00,60.00,Sunday
8,13.443149054888544
2,1, 1, 1, 0,12, 0.00,10.00,Sunday
8,13.453967036108788
2,1, 1, 1, 0,12,10.00,20.00,Sunday
8,13.464717583257006
2,1, 1, 1, 0,12,20.00,30.00,Sunday
8,13.475427000670385
2,1, 1, 1, 0,12,30.00,40.00,Sunday
8,13.486075898060126
2,1, 1, 1, 0,12,40.00,50.00,Sunday
8,13.496669185074067
2,1, 1, 1, 0,12,50.00,60.00,Sunday
8,13.507215597556556
2,1, 1, 1, 0,13, 0.00,10.00,Sunday
8,13.506983677108899
2,1, 1, 1, 0,13,10.00,20.00,Sunday
8,13.506758228080923
2,1, 1, 1, 0,13,20.00,30.00,Sunday
8,13.506530920519845
2,1, 1, 1, 0,13,30.00,40.00,Sunday
8,13.50630476449465
2,1, 1, 1, 0,13,40.00,50.00,Sunday
8,13.50607068483315
2,1, 1, 1, 0,13,50.00,60.00,Sunday
8,13.505849208806348
2,1, 1, 1, 0,14, 0.00,10.00,Sunday
8,13.428955197660157
2,1, 1, 1, 0,14,10.00,20.00,Sunday
8,13.351406226372293
2,1, 1, 1, 0,14,20.00,30.00,Sunday
8,13.273191372206919
2,1, 1, 1, 0,14,30.00,40.00,Sunday
8,13.194314388422667
2,1, 1, 1, 0,14,40.00,50.00,Sunday
8,13.114784723554095
2,1, 1, 1, 0,14,50.00,60.00,Sunday
8,13.034604694554368
2,1, 1, 1, 0,15, 0.00,10.00,Sunday
8,13.038067641545347
2,1, 1, 1, 0,15,10.00,20.00,Sunday
8,13.04150091942482
2,1, 1, 1, 0,15,20.00,30.00,Sunday
8,13.044890745011049
2,1, 1, 1, 0,15,30.00,40.00,Sunday
8,13.048256555661475
2,1, 1, 1, 0,15,40.00,50.00,Sunday
8,13.051592643854029
2,1, 1, 1, 0,15,50.00,60.00,Sunday
8,13.054898724312329
2,1, 1, 1, 0,16, 0.00,10.00,Sunday
8,13.046389194989669
2,1, 1, 1, 0,16,10.00,20.00,Sunday
8,13.037712291881496
2,1, 1, 1, 0,16,20.00,30.00,Sunday
8,13.028872476718755
2,1, 1, 1, 0,16,30.00,40.00,Sunday
8,13.019850550576854
2,1, 1, 1, 0,16,40.00,50.00,Sunday
8,13.010671526679332
2,1, 1, 1, 0,16,50.00,60.00,Sunday
8,13.001315362524123
2,1, 1, 1, 0,17, 0.00,10.00,Sunday
8,12.97352189733074
2,1, 1, 1, 0,17,10.00,20.00,Sunday
8,12.945653086423312
2,1, 1, 1, 0,17,20.00,30.00,Sunday
8,12.917717871612174
2,1, 1, 1, 0,17,30.00,40.00,Sunday
8,12.889714764662767
2,1, 1, 1, 0,17,40.00,50.00,Sunday
8,12.861637029210812
2,1, 1, 1, 0,17,50.00,60.00,Sunday
8,12.833495365494608
2,1, 1, 1, 0,18, 0.00,10.00,Sunday
8,12.871903860714989
2,1, 1, 1, 0,18,10.00,20.00,Sunday
8,12.909867984939507
2,1, 1, 1, 0,18,20.00,30.00,Sunday
8,12.947386197442718
2,1, 1, 1, 0,18,30.00,40.00,Sunday
8,12.984448024680095
2,1, 1, 1, 0,18,40.00,50.00,Sunday
8,13.021065232982434
2,1, 1, 1, 0,18,50.00,60.00,Sunday
8,13.057229817311209
2,1, 1, 1, 0,19, 0.00,10.00,Sunday
8,13.063702983760706
2,1, 1, 1, 0,19,10.00,20.00,Sunday
8,13.070052401866393
2,1, 1, 1, 0,19,20.00,30.00,Sunday
8,13.076274652894166
2,1, 1, 1, 0,19,30.00,40.00,Sunday
8,13.082370630454454
2,1, 1, 1, 0,19,40.00,50.00,Sunday
8,13.088347031807932
2,1, 1, 1, 0,19,50.00,60.00,Sunday
8,13.094189946922486
2,1, 1, 1, 0,20, 0.00,10.00,Sunday
8,13.08175864989389
2,1, 1, 1, 0,20,10.00,20.00,Sunday
8,13.069270853954017
2,1, 1, 1, 0,20,20.00,30.00,Sunday
8,13.056741330224455
2,1, 1, 1, 0,20,30.00,40.00,Sunday
8,13.044155367712975
2,1, 1, 1, 0,20,40.00,50.00,Sunday
8,13.031519945186606
2,1, 1, 1, 0,20,50.00,60.00,Sunday
8,13.018835209159395
2,1, 1, 1, 0,21, 0.00,10.00,Sunday
8,13.11650351268804
2,1, 1, 1, 0,21,10.00,20.00,Sunday
8,13.214287478604153
2,1, 1, 1, 0,21,20.00,30.00,Sunday
8,13.312171364931345
2,1, 1, 1, 0,21,30.00,40.00,Sunday
8,13.410161348326909
2,1, 1, 1, 0,21,40.00,50.00,Sunday
8,13.508251270711197
2,1, 1, 1, 0,21,50.00,60.00,Sunday
8,13.606450338694158
2,1, 1, 1, 0,22, 0.00,10.00,Sunday
8,13.611631247190964
2,1, 1, 1, 0,22,10.00,20.00,Sunday
8,13.616691395530033
2,1, 1, 1, 0,22,20.00,30.00,Sunday
8,13.621627976455193
2,1, 1, 1, 0,22,30.00,40.00,Sunday
8,13.626441100512553
2,1, 1, 1, 0,22,40.00,50.00,Sunday
8,13.631145108887138
2,1, 1, 1, 0,22,50.00,60.00,Sunday
8,13.635718422209103
2,1, 1, 1, 0,23, 0.00,10.00,Sunday
8,13.622223797249906
2,1, 1, 1, 0,23,10.00,20.00,Sunday
8,13.608682268819623
2,1, 1, 1, 0,23,20.00,30.00,Sunday
8,13.59510630363165
2,1, 1, 1, 0,23,30.00,40.00,Sunday
8,13.581470547001791
2,1, 1, 1, 0,23,40.00,50.00,Sunday
8,13.567794618592299
2,1, 1, 1, 0,23,50.00,60.00,Sunday
8,13.55407704173236
2,1, 1, 1, 0,24, 0.00,10.00,Sunday
8,13.56332199589797
2,1, 1, 1, 0,24,10.00,20.00,Sunday
8,13.57223865002082
2,1, 1, 1, 0,24,20.00,30.00,Sunday
8,13.580833201647103
2,1, 1, 1, 0,24,30.00,40.00,Sunday
8,13.589087029721507
2,1, 1, 1, 0,24,40.00,50.00,Sunday
8,13.596999370569561
2,1, 1, 1, 0,24,50.00,60.00,Sunday
8,13.604586371034666
2,2, 1, 2, 0, 1, 0.00,10.00,Monday
8,13.620061456020326
2,2, 1, 2, 0, 1,10.00,20.00,Monday
8,13.635535111859263
2,2, 1, 2, 0, 1,20.00,30.00,Monday
8,13.65100737221269
2,2, 1, 2, 0, 1,30.00,40.00,Monday
8,13.666491088734686
2,2, 1, 2, 0, 1,40.00,50.00,Monday
8,13.681960371351606
2,2, 1, 2, 0, 1,50.00,60.00,Monday
8,13.697435327463209
2,2, 1, 2, 0, 2, 0.00,10.00,Monday
8,13.712909051150968
2,2, 1, 2, 0, 2,10.00,20.00,Monday
8,13.728387057373393
2,2, 1, 2, 0, 2,20.00,30.00,Monday
8,13.743857505230574
2,2, 1, 2, 0, 2,30.00,40.00,Monday
8,13.759333627485488
2,2, 1, 2, 0, 2,40.00,50.00,Monday
8,13.774808393739898
2,2, 1, 2, 0, 2,50.00,60.00,Monday
8,13.790287496096394
2,2, 1, 2, 0, 3, 0.00,10.00,Monday
8,13.822427721590316
2,2, 1, 2, 0, 3,10.00,20.00,Monday
8,13.853510677354894
2,2, 1, 2, 0, 3,20.00,30.00,Monday
8,13.883518096611662
2,2, 1, 2, 0, 3,30.00,40.00,Monday
8,13.91243859609007
2,2, 1, 2, 0, 3,40.00,50.00,Monday
8,13.940261232238841
2,2, 1, 2, 0, 3,50.00,60.00,Monday
8,13.966980788915024
2,2, 1, 2, 0, 4, 0.00,10.00,Monday
8,13.966250350812429
2,2, 1, 2, 0, 4,10.00,20.00,Monday
8,13.963155131032899
2,2, 1, 2, 0, 4,20.00,30.00,Monday
8,13.95775784593185
2,2, 1, 2, 0, 4,30.00,40.00,Monday
8,13.950050214294644
2,2, 1, 2, 0, 4,40.00,50.00,Monday
8,13.940100498775465
2,2, 1, 2, 0, 4,50.00,60.00,Monday
8,13.927941102443603
2,2, 1, 2, 0, 5, 0.00,10.00,Monday
8,13.9546105889474
2,2, 1, 2, 0, 5,10.00,20.00,Monday
8,13.980629465739737
2,2, 1, 2, 0, 5,20.00,30.00,Monday
8,14.00601021286603
2,2, 1, 2, 0, 5,30.00,40.00,Monday
8,14.030755138873119
2,2, 1, 2, 0, 5,40.00,50.00,Monday
8,14.054873178580378
2,2, 1, 2, 0, 5,50.00,60.00,Monday
8,14.078359147219853
2,2, 1, 2, 0, 6, 0.00,10.00,Monday
8,14.0024502573352
2,2, 1, 2, 0, 6,10.00,20.00,Monday
8,13.925280665327849
2,2, 1, 2, 0, 6,20.00,30.00,Monday
8,13.846825238285005
2,2, 1, 2, 0, 6,30.00,40.00,Monday
8,13.76708702909705
2,2, 1, 2, 0, 6,40.00,50.00,Monday
8,13.686034224248257
2,2, 1, 2, 0, 6,50.00,60.00,Monday
8,13.603657419681504
2,2, 1, 2, 0, 7, 0.00,10.00,Monday
8,13.637252613977492
2,2, 1, 2, 0, 7,10.00,20.00,Monday
8,13.670855669211646
2,2, 1, 2, 0, 7,20.00,30.00,Monday
8,13.70446719397287
2,2, 1, 2, 0, 7,30.00,40.00,Monday
8,13.738092390854879
2,2, 1, 2, 0, 7,40.00,50.00,Monday
8,13.77171260185481
2,2, 1, 2, 0, 7,50.00,60.00,Monday
8,13.805347379594343
2,2, 1, 2, 0, 8, 0.00,10.00,Monday
8,13.838990142617075
2,2, 1, 2, 0, 8,10.00,20.00,Monday
8,13.872646198075703
2,2, 1, 2, 0, 8,20.00,30.00,Monday
8,13.906296716122294
2,2, 1, 2, 0, 8,30.00,40.00,Monday
8,13.93996162266149
2,2, 1, 2, 0, 8,40.00,50.00,Monday
8,13.97363382988505
2,2, 1, 2, 0, 8,50.00,60.00,Monday
8,14.007319236738037
2,2, 1, 2, 0, 9, 0.00,10.00,Monday
8,14.178128281326178
2,2, 1, 2, 0, 9,10.00,20.00,Monday
8,14.3464602564263
2,2, 1, 2, 0, 9,20.00,30.00,Monday
8,14.512314306905904
2,2, 1, 2, 0, 9,30.00,40.00,Monday
8,14.675631452664338
2,2, 1, 2, 0, 9,40.00,50.00,Monday
8,14.836393274355997
2,2, 1, 2, 0, 9,50.00,60.00,Monday
8,14.994555125692653
2,2, 1, 2, 0,10, 0.00,10.00,Monday
8,15.093763315309218
2,2, 1, 2, 0,10,10.00,20.00,Monday
8,15.191313628349374
2,2, 1, 2, 0,10,20.00,30.00,Monday
8,15.287193750549271
2,2, 1, 2, 0,10,30.00,40.00,Monday
8,15.381362541593957
2,2, 1, 2, 0,10,40.00,50.00,Monday
8,15.47382082395455
2,2, 1, 2, 0,10,50.00,60.00,Monday
8,15.56453194553398
2,2, 1, 2, 0,11, 0.00,10.00,Monday
8,15.689424134778383
2,2, 1, 2, 0,11,10.00,20.00,Monday
8,15.81287849672927
2,2, 1, 2, 0,11,20.00,30.00,Monday
8,15.934877683546317
2,2, 1, 2, 0,11,30.00,40.00,Monday
8,16.055395197800907
2,2, 1, 2, 0,11,40.00,50.00,Monday
8,16.17443732893293
2,2, 1, 2, 0,11,50.00,60.00,Monday
8,16.29198299349739
2,2, 1, 2, 0,12, 0.00,10.00,Monday
8,16.393352280719637
2,2, 1, 2, 0,12,10.00,20.00,Monday
8,16.493292623114006
2,2, 1, 2, 0,12,20.00,30.00,Monday
8,16.591768938950755
2,2, 1, 2, 0,12,30.00,40.00,Monday
8,16.68876840535633
2,2, 1, 2, 0,12,40.00,50.00,Monday
8,16.78427508812852
2,2, 1, 2, 0,12,50.00,60.00,Monday
8,16.87828306867071
2,2, 1, 2, 0,13, 0.00,10.00,Monday
8,16.951001444385047
2,2, 1, 2, 0,13,10.00,20.00,Monday
8,17.02283222519094
2,2, 1, 2, 0,13,20.00,30.00,Monday
8,17.09376352520256
2,2, 1, 2, 0,13,30.00,40.00,Monday
8,17.163778741775624
2,2, 1, 2, 0,13,40.00,50.00,Monday
8,17.232881720804838
2,2, 1, 2, 0,13,50.00,60.00,Monday
8,17.30106887329527
2,2, 1, 2, 0,14, 0.00,10.00,Monday
8,17.294403371276137
2,2, 1, 2, 0,14,10.00,20.00,Monday
8,17.28751541767365
2,2, 1, 2, 0,14,20.00,30.00,Monday
8,17.280386733706846
2,2, 1, 2, 0,14,30.00,40.00,Monday
8,17.27302996036651
2,2, 1, 2, 0,14,40.00,50.00,Monday
8,17.265432436315789
2,2, 1, 2, 0,14,50.00,60.00,Monday
8,17.257588303876596
2,2, 1, 2, 0,15, 0.00,10.00,Monday
8,17.23364913383873
2,2, 1, 2, 0,15,10.00,20.00,Monday
8,17.209004323708368
2,2, 1, 2, 0,15,20.00,30.00,Monday
8,17.183661516268548
2,2, 1, 2, 0,15,30.00,40.00,Monday
8,17.157617750941986
2,2, 1, 2, 0,15,40.00,50.00,Monday
8,17.13089059757383
2,2, 1, 2, 0,15,50.00,60.00,Monday
8,17.103477240972077
2,2, 1, 2, 0,16, 0.00,10.00,Monday
8,17.065966973603787
2,2, 1, 2, 0,16,10.00,20.00,Monday
8,17.028079515774896
2,2, 1, 2, 0,16,20.00,30.00,Monday
8,16.98983156828207
2,2, 1, 2, 0,16,30.00,40.00,Monday
8,16.951226978876976
2,2, 1, 2, 0,16,40.00,50.00,Monday
8,16.912253573594417
2,2, 1, 2, 0,16,50.00,60.00,Monday
8,16.872933004119529
2,2, 1, 2, 0,17, 0.00,10.00,Monday
8,16.86902948399097
2,2, 1, 2, 0,17,10.00,20.00,Monday
8,16.863042485410433
2,2, 1, 2, 0,17,20.00,30.00,Monday
8,16.855001007220488
2,2, 1, 2, 0,17,30.00,40.00,Monday
8,16.844911605172024
2,2, 1, 2, 0,17,40.00,50.00,Monday
8,16.832829251597948
2,2, 1, 2, 0,17,50.00,60.00,Monday
8,16.81877531149127
2,2, 1, 2, 0,18, 0.00,10.00,Monday
8,16.824468775654755
2,2, 1, 2, 0,18,10.00,20.00,Monday
8,16.82782613324496
2,2, 1, 2, 0,18,20.00,30.00,Monday
8,16.828888088166026
2,2, 1, 2, 0,18,30.00,40.00,Monday
8,16.827676206824358
2,2, 1, 2, 0,18,40.00,50.00,Monday
8,16.824235345928459
2,2, 1, 2, 0,18,50.00,60.00,Monday
8,16.818603202173134
2,2, 1, 2, 0,19, 0.00,10.00,Monday
8,16.752047354382368
2,2, 1, 2, 0,19,10.00,20.00,Monday
8,16.685531565214015
2,2, 1, 2, 0,19,20.00,30.00,Monday
8,16.619068579644087
2,2, 1, 2, 0,19,30.00,40.00,Monday
8,16.552646815033464
2,2, 1, 2, 0,19,40.00,50.00,Monday
8,16.48627318691879
2,2, 1, 2, 0,19,50.00,60.00,Monday
8,16.419943666073097
2,2, 1, 2, 0,20, 0.00,10.00,Monday
8,16.395075129381657
2,2, 1, 2, 0,20,10.00,20.00,Monday
8,16.370133023009289
2,2, 1, 2, 0,20,20.00,30.00,Monday
8,16.345116681930663
2,2, 1, 2, 0,20,30.00,40.00,Monday
8,16.320031118867467
2,2, 1, 2, 0,20,40.00,50.00,Monday
8,16.29486600561637
2,2, 1, 2, 0,20,50.00,60.00,Monday
8,16.269619856069533
2,2, 1, 2, 0,21, 0.00,10.00,Monday
8,16.258474908330105
2,2, 1, 2, 0,21,10.00,20.00,Monday
8,16.246359778204938
2,2, 1, 2, 0,21,20.00,30.00,Monday
8,16.233269495954948
2,2, 1, 2, 0,21,30.00,40.00,Monday
8,16.21917797639294
2,2, 1, 2, 0,21,40.00,50.00,Monday
8,16.204094462978234
2,2, 1, 2, 0,21,50.00,60.00,Monday
8,16.1879914151385
2,2, 1, 2, 0,22, 0.00,10.00,Monday
8,16.282513778239286
2,2, 1, 2, 0,22,10.00,20.00,Monday
8,16.375202325434264
2,2, 1, 2, 0,22,20.00,30.00,Monday
8,16.46609111248529
2,2, 1, 2, 0,22,30.00,40.00,Monday
8,16.555186827901083
2,2, 1, 2, 0,22,40.00,50.00,Monday
8,16.642532051433756
2,2, 1, 2, 0,22,50.00,60.00,Monday
8,16.728156788288798
2,2, 1, 2, 0,23, 0.00,10.00,Monday
8,16.81221856206234
2,2, 1, 2, 0,23,10.00,20.00,Monday
8,16.89458590467129
2,2, 1, 2, 0,23,20.00,30.00,Monday
8,16.975276718893207
2,2, 1, 2, 0,23,30.00,40.00,Monday
8,17.05431350794752
2,2, 1, 2, 0,23,40.00,50.00,Monday
8,17.131733873441438
2,2, 1, 2, 0,23,50.00,60.00,Monday
8,17.2075477874417
2,2, 1, 2, 0,24, 0.00,10.00,Monday
8,17.188137404395403
2,2, 1, 2, 0,24,10.00,20.00,Monday
8,17.16871531610396
2,2, 1, 2, 0,24,20.00,30.00,Monday
8,17.14927547806587
2,2, 1, 2, 0,24,30.00,40.00,Monday
8,17.129818526502925
2,2, 1, 2, 0,24,40.00,50.00,Monday
8,17.110349981325116
2,2, 1, 2, 0,24,50.00,60.00,Monday
8,17.09086351967979
2,3, 1, 3, 0, 1, 0.00,10.00,Tuesday
8,17.029001248569569
2,3, 1, 3, 0, 1,10.00,20.00,Tuesday
8,16.965915406421
2,3, 1, 3, 0, 1,20.00,30.00,Tuesday
8,16.901615799771954
2,3, 1, 3, 0, 1,30.00,40.00,Tuesday
8,16.836109604301134
2,3, 1, 3, 0, 1,40.00,50.00,Tuesday
8,16.76941192074163
2,3, 1, 3, 0, 1,50.00,60.00,Tuesday
8,16.701545927115629
2,3, 1, 3, 0, 2, 0.00,10.00,Tuesday
8,16.675628607747183
2,3, 1, 3, 0, 2,10.00,20.00,Tuesday
8,16.649304023063086
2,3, 1, 3, 0, 2,20.00,30.00,Tuesday
8,16.622559201989696
2,3, 1, 3, 0, 2,30.00,40.00,Tuesday
8,16.595393460458295
2,3, 1, 3, 0, 2,40.00,50.00,Tuesday
8,16.567798211319429
2,3, 1, 3, 0, 2,50.00,60.00,Tuesday
8,16.539780557520854
2,3, 1, 3, 0, 3, 0.00,10.00,Tuesday
8,16.536531672133756
2,3, 1, 3, 0, 3,10.00,20.00,Tuesday
8,16.53203483237152
2,3, 1, 3, 0, 3,20.00,30.00,Tuesday
8,16.526288272514884
2,3, 1, 3, 0, 3,30.00,40.00,Tuesday
8,16.519259381455599
2,3, 1, 3, 0, 3,40.00,50.00,Tuesday
8,16.510940653749434
2,3, 1, 3, 0, 3,50.00,60.00,Tuesday
8,16.50133071626977
2,3, 1, 3, 0, 4, 0.00,10.00,Tuesday
8,16.26895476172741
2,3, 1, 3, 0, 4,10.00,20.00,Tuesday
8,16.034875707782534
2,3, 1, 3, 0, 4,20.00,30.00,Tuesday
8,15.799105497717374
2,3, 1, 3, 0, 4,30.00,40.00,Tuesday
8,15.561652071987636
2,3, 1, 3, 0, 4,40.00,50.00,Tuesday
8,15.32253404993971
2,3, 1, 3, 0, 4,50.00,60.00,Tuesday
8,15.081767419992538
2,3, 1, 3, 0, 5, 0.00,10.00,Tuesday
8,15.107829803269518
2,3, 1, 3, 0, 5,10.00,20.00,Tuesday
8,15.133491941426346
2,3, 1, 3, 0, 5,20.00,30.00,Tuesday
8,15.158741766733085
2,3, 1, 3, 0, 5,30.00,40.00,Tuesday
8,15.183593845477942
2,3, 1, 3, 0, 5,40.00,50.00,Tuesday
8,15.208048505697047
2,3, 1, 3, 0, 5,50.00,60.00,Tuesday
8,15.232102108804308
2,3, 1, 3, 0, 6, 0.00,10.00,Tuesday
8,15.263063867251738
2,3, 1, 3, 0, 6,10.00,20.00,Tuesday
8,15.292318245655647
2,3, 1, 3, 0, 6,20.00,30.00,Tuesday
8,15.319878500638831
2,3, 1, 3, 0, 6,30.00,40.00,Tuesday
8,15.34577112128094
2,3, 1, 3, 0, 6,40.00,50.00,Tuesday
8,15.370026491983622
2,3, 1, 3, 0, 6,50.00,60.00,Tuesday
8,15.392662086128475
2,3, 1, 3, 0, 7, 0.00,10.00,Tuesday
8,15.350038658962573
2,3, 1, 3, 0, 7,10.00,20.00,Tuesday
8,15.30389221866633
2,3, 1, 3, 0, 7,20.00,30.00,Tuesday
8,15.254135908326097
2,3, 1, 3, 0, 7,30.00,40.00,Tuesday
8,15.200700026591312
2,3, 1, 3, 0, 7,40.00,50.00,Tuesday
8,15.143504385424782
2,3, 1, 3, 0, 7,50.00,60.00,Tuesday
8,15.082474660270754
2,3, 1, 3, 0, 8, 0.00,10.00,Tuesday
8,15.14753764178128
2,3, 1, 3, 0, 8,10.00,20.00,Tuesday
8,15.211384493459095
2,3, 1, 3, 0, 8,20.00,30.00,Tuesday
8,15.273997267944364
2,3, 1, 3, 0, 8,30.00,40.00,Tuesday
8,15.335358296623867
2,3, 1, 3, 0, 8,40.00,50.00,Tuesday
8,15.395459805538963
2,3, 1, 3, 0, 8,50.00,60.00,Tuesday
8,15.454284192788235
2,3, 1, 3, 0, 9, 0.00,10.00,Tuesday
8,15.454436824393657
2,3, 1, 3, 0, 9,10.00,20.00,Tuesday
8,15.454595010638182
2,3, 1, 3, 0, 9,20.00,30.00,Tuesday
8,15.454752767712849
2,3, 1, 3, 0, 9,30.00,40.00,Tuesday
8,15.454903837691028
2,3, 1, 3, 0, 9,40.00,50.00,Tuesday
8,15.455060453940432
2,3, 1, 3, 0, 9,50.00,60.00,Tuesday
8,15.455216641688092
2,3, 1, 3, 0,10, 0.00,10.00,Tuesday
8,15.76218952848427
2,3, 1, 3, 0,10,10.00,20.00,Tuesday
8,16.063628898640777
2,3, 1, 3, 0,10,20.00,30.00,Tuesday
8,16.35944251983492
2,3, 1, 3, 0,10,30.00,40.00,Tuesday
8,16.649524639547225
2,3, 1, 3, 0,10,40.00,50.00,Tuesday
8,16.933762173509615
2,3, 1, 3, 0,10,50.00,60.00,Tuesday
8,17.212061224812645
2,3, 1, 3, 0,11, 0.00,10.00,Tuesday
8,17.281849865374814
2,3, 1, 3, 0,11,10.00,20.00,Tuesday
8,17.349935553188737
2,3, 1, 3, 0,11,20.00,30.00,Tuesday
8,17.416294978871215
2,3, 1, 3, 0,11,30.00,40.00,Tuesday
8,17.480895860887356
2,3, 1, 3, 0,11,40.00,50.00,Tuesday
8,17.543725561929379
2,3, 1, 3, 0,11,50.00,60.00,Tuesday
8,17.604762413701495
2,3, 1, 3, 0,12, 0.00,10.00,Tuesday
8,17.70479200938491
2,3, 1, 3, 0,12,10.00,20.00,Tuesday
8,17.80101014777419
2,3, 1, 3, 0,12,20.00,30.00,Tuesday
8,17.89335083634542
2,3, 1, 3, 0,12,30.00,40.00,Tuesday
8,17.981732938675834
2,3, 1, 3, 0,12,40.00,50.00,Tuesday
8,18.06608619172731
2,3, 1, 3, 0,12,50.00,60.00,Tuesday
8,18.14633444712875
2,3, 1, 3, 0,13, 0.00,10.00,Tuesday
8,18.348131893193405
2,3, 1, 3, 0,13,10.00,20.00,Tuesday
8,18.548464051011906
2,3, 1, 3, 0,13,20.00,30.00,Tuesday
8,18.747355669010266
2,3, 1, 3, 0,13,30.00,40.00,Tuesday
8,18.944805418550577
2,3, 1, 3, 0,13,40.00,50.00,Tuesday
8,19.140848944854175
2,3, 1, 3, 0,13,50.00,60.00,Tuesday
8,19.335500547539576
2,3, 1, 3, 0,14, 0.00,10.00,Tuesday
8,19.30927955480484
2,3, 1, 3, 0,14,10.00,20.00,Tuesday
8,19.27712124293131
2,3, 1, 3, 0,14,20.00,30.00,Tuesday
8,19.239167459595554
2,3, 1, 3, 0,14,30.00,40.00,Tuesday
8,19.19555880977263
2,3, 1, 3, 0,14,40.00,50.00,Tuesday
8,19.14643752422425
2,3, 1, 3, 0,14,50.00,60.00,Tuesday
8,19.091915328862386
2,3, 1, 3, 0,15, 0.00,10.00,Tuesday
8,19.081599581062489
2,3, 1, 3, 0,15,10.00,20.00,Tuesday
8,19.06832574214944
2,3, 1, 3, 0,15,20.00,30.00,Tuesday
8,19.05215381922793
2,3, 1, 3, 0,15,30.00,40.00,Tuesday
8,19.033138079558595
2,3, 1, 3, 0,15,40.00,50.00,Tuesday
8,19.011313874695554
2,3, 1, 3, 0,15,50.00,60.00,Tuesday
8,18.98674106337426
2,3, 1, 3, 0,16, 0.00,10.00,Tuesday
8,18.82848986257986
2,3, 1, 3, 0,16,10.00,20.00,Tuesday
8,18.67024793075755
2,3, 1, 3, 0,16,20.00,30.00,Tuesday
8,18.512017067970903
2,3, 1, 3, 0,16,30.00,40.00,Tuesday
8,18.35378856541972
2,3, 1, 3, 0,16,40.00,50.00,Tuesday
8,18.19556394228195
2,3, 1, 3, 0,16,50.00,60.00,Tuesday
8,18.037357228163868
2,3, 1, 3, 0,17, 0.00,10.00,Tuesday
8,18.057413191679378
2,3, 1, 3, 0,17,10.00,20.00,Tuesday
8,18.077450735753279
2,3, 1, 3, 0,17,20.00,30.00,Tuesday
8,18.09747672073435
2,3, 1, 3, 0,17,30.00,40.00,Tuesday
8,18.117477746949299
2,3, 1, 3, 0,17,40.00,50.00,Tuesday
8,18.1374673415708
2,3, 1, 3, 0,17,50.00,60.00,Tuesday
8,18.15744414041123
2,3, 1, 3, 0,18, 0.00,10.00,Tuesday
8,18.077567935717498
2,3, 1, 3, 0,18,10.00,20.00,Tuesday
8,17.996774800477245
2,3, 1, 3, 0,18,20.00,30.00,Tuesday
8,17.915074304424619
2,3, 1, 3, 0,18,30.00,40.00,Tuesday
8,17.83245487344835
2,3, 1, 3, 0,18,40.00,50.00,Tuesday
8,17.748938705057609
2,3, 1, 3, 0,18,50.00,60.00,Tuesday
8,17.664542148824
2,3, 1, 3, 0,19, 0.00,10.00,Tuesday
8,17.6646098074442
2,3, 1, 3, 0,19,10.00,20.00,Tuesday
8,17.664689025758976
2,3, 1, 3, 0,19,20.00,30.00,Tuesday
8,17.66476780333498
2,3, 1, 3, 0,19,30.00,40.00,Tuesday
8,17.66484010449192
2,3, 1, 3, 0,19,40.00,50.00,Tuesday
8,17.664911982839869
2,3, 1, 3, 0,19,50.00,60.00,Tuesday
8,17.66499521581509
2,3, 1, 3, 0,20, 0.00,10.00,Tuesday
8,17.710348188869565
2,3, 1, 3, 0,20,10.00,20.00,Tuesday
8,17.755628162146505
2,3, 1, 3, 0,20,20.00,30.00,Tuesday
8,17.80082785215369
2,3, 1, 3, 0,20,30.00,40.00,Tuesday
8,17.84594820458692
2,3, 1, 3, 0,20,40.00,50.00,Tuesday
8,17.890989868185426
2,3, 1, 3, 0,20,50.00,60.00,Tuesday
8,17.935952920090945
2,3, 1, 3, 0,21, 0.00,10.00,Tuesday
8,18.0062414073295
2,3, 1, 3, 0,21,10.00,20.00,Tuesday
8,18.07540123045119
2,3, 1, 3, 0,21,20.00,30.00,Tuesday
8,18.14342788558116
2,3, 1, 3, 0,21,30.00,40.00,Tuesday
8,18.210343586587198
2,3, 1, 3, 0,21,40.00,50.00,Tuesday
8,18.27616869974601
2,3, 1, 3, 0,21,50.00,60.00,Tuesday
8,18.340898779943655
2,3, 1, 3, 0,22, 0.00,10.00,Tuesday
8,18.177077254176994
2,3, 1, 3, 0,22,10.00,20.00,Tuesday
8,18.013253209490796
2,3, 1, 3, 0,22,20.00,30.00,Tuesday
8,17.849439239605489
2,3, 1, 3, 0,22,30.00,40.00,Tuesday
8,17.685623538846739
2,3, 1, 3, 0,22,40.00,50.00,Tuesday
8,17.521807196253584
2,3, 1, 3, 0,22,50.00,60.00,Tuesday
8,17.357997330914495
2,3, 1, 3, 0,23, 0.00,10.00,Tuesday
8,17.248051819011708
2,3, 1, 3, 0,23,10.00,20.00,Tuesday
8,17.137516087234024
2,3, 1, 3, 0,23,20.00,30.00,Tuesday
8,17.0263907378254
2,3, 1, 3, 0,23,30.00,40.00,Tuesday
8,16.914660264797523
2,3, 1, 3, 0,23,40.00,50.00,Tuesday
8,16.802350186955743
2,3, 1, 3, 0,23,50.00,60.00,Tuesday
8,16.689467559502814
2,3, 1, 3, 0,24, 0.00,10.00,Tuesday
8,16.5759567919447
2,3, 1, 3, 0,24,10.00,20.00,Tuesday
8,16.4618827578033
2,3, 1, 3, 0,24,20.00,30.00,Tuesday
8,16.347253054884985
2,3, 1, 3, 0,24,30.00,40.00,Tuesday
8,16.232052425521187
2,3, 1, 3, 0,24,40.00,50.00,Tuesday
8,16.1162950368404
2,3, 1, 3, 0,24,50.00,60.00,Tuesday
8,15.999994072069939
2,4, 1, 4, 0, 1, 0.00,10.00,Wednesday
8,15.916632236570699
2,4, 1, 4, 0, 1,10.00,20.00,Wednesday
8,15.833324151105785
2,4, 1, 4, 0, 1,20.00,30.00,Wednesday
8,15.750074623947308
2,4, 1, 4, 0, 1,30.00,40.00,Wednesday
8,15.666872614758395
2,4, 1, 4, 0, 1,40.00,50.00,Wednesday
8,15.583732104045982
2,4, 1, 4, 0, 1,50.00,60.00,Wednesday
8,15.50064286387137
2,4, 1, 4, 0, 2, 0.00,10.00,Wednesday
8,15.401061054853069
2,4, 1, 4, 0, 2,10.00,20.00,Wednesday
8,15.301580474479714
2,4, 1, 4, 0, 2,20.00,30.00,Wednesday
8,15.202191525302324
2,4, 1, 4, 0, 2,30.00,40.00,Wednesday
8,15.10288890530926
2,4, 1, 4, 0, 2,40.00,50.00,Wednesday
8,15.003686927301006
2,4, 1, 4, 0, 2,50.00,60.00,Wednesday
8,14.904579437496049
2,4, 1, 4, 0, 3, 0.00,10.00,Wednesday
8,14.822000907571992
2,4, 1, 4, 0, 3,10.00,20.00,Wednesday
8,14.739476033309116
2,4, 1, 4, 0, 3,20.00,30.00,Wednesday
8,14.657009185609866
2,4, 1, 4, 0, 3,30.00,40.00,Wednesday
8,14.574604951293372
2,4, 1, 4, 0, 3,40.00,50.00,Wednesday
8,14.492259283809322
2,4, 1, 4, 0, 3,50.00,60.00,Wednesday
8,14.409972678238443
2,4, 1, 4, 0, 4, 0.00,10.00,Wednesday
8,14.344928332953226
2,4, 1, 4, 0, 4,10.00,20.00,Wednesday
8,14.27855364939964
2,4, 1, 4, 0, 4,20.00,30.00,Wednesday
8,14.210865051738116
2,4, 1, 4, 0, 4,30.00,40.00,Wednesday
8,14.141858784742505
2,4, 1, 4, 0, 4,40.00,50.00,Wednesday
8,14.071563819755978
2,4, 1, 4, 0, 4,50.00,60.00,Wednesday
8,13.999996809582394
2,4, 1, 4, 0, 5, 0.00,10.00,Wednesday
8,13.793865998335159
2,4, 1, 4, 0, 5,10.00,20.00,Wednesday
8,13.586635172499629
2,4, 1, 4, 0, 5,20.00,30.00,Wednesday
8,13.378304173737304
2,4, 1, 4, 0, 5,30.00,40.00,Wednesday
8,13.168846083046903
2,4, 1, 4, 0, 5,40.00,50.00,Wednesday
8,12.95826441073959
2,4, 1, 4, 0, 5,50.00,60.00,Wednesday
8,12.746548865710454
2,4, 1, 4, 0, 6, 0.00,10.00,Wednesday
8,12.762774401386139
2,4, 1, 4, 0, 6,10.00,20.00,Wednesday
8,12.778999243200918
2,4, 1, 4, 0, 6,20.00,30.00,Wednesday
8,12.795235311108323
2,4, 1, 4, 0, 6,30.00,40.00,Wednesday
8,12.811457836693937
2,4, 1, 4, 0, 6,40.00,50.00,Wednesday
8,12.827685929116486
2,4, 1, 4, 0, 6,50.00,60.00,Wednesday
8,12.843914688575847
2,4, 1, 4, 0, 7, 0.00,10.00,Wednesday
8,12.780865223011105
2,4, 1, 4, 0, 7,10.00,20.00,Wednesday
8,12.716455710114527
2,4, 1, 4, 0, 7,20.00,30.00,Wednesday
8,12.650683186222472
2,4, 1, 4, 0, 7,30.00,40.00,Wednesday
8,12.58356744843123
2,4, 1, 4, 0, 7,40.00,50.00,Wednesday
8,12.51513117542715
2,4, 1, 4, 0, 7,50.00,60.00,Wednesday
8,12.445379082661706
2,4, 1, 4, 0, 8, 0.00,10.00,Wednesday
8,12.420344766695573
2,4, 1, 4, 0, 8,10.00,20.00,Wednesday
8,12.39263589323097
2,4, 1, 4, 0, 8,20.00,30.00,Wednesday
8,12.362194807538968
2,4, 1, 4, 0, 8,30.00,40.00,Wednesday
8,12.328980329351598
2,4, 1, 4, 0, 8,40.00,50.00,Wednesday
8,12.292936098352398
2,4, 1, 4, 0, 8,50.00,60.00,Wednesday
8,12.254015484199533
2,4, 1, 4, 0, 9, 0.00,10.00,Wednesday
8,12.194344448056463
2,4, 1, 4, 0, 9,10.00,20.00,Wednesday
8,12.133626359981932
2,4, 1, 4, 0, 9,20.00,30.00,Wednesday
8,12.071867379650746
2,4, 1, 4, 0, 9,30.00,40.00,Wednesday
8,12.009071114343302
2,4, 1, 4, 0, 9,40.00,50.00,Wednesday
8,11.945264328637706
2,4, 1, 4, 0, 9,50.00,60.00,Wednesday
8,11.880446339996358
2,4, 1, 4, 0,10, 0.00,10.00,Wednesday
8,11.785093235923482
2,4, 1, 4, 0,10,10.00,20.00,Wednesday
8,11.689419470422509
2,4, 1, 4, 0,10,20.00,30.00,Wednesday
8,11.59342879232457
2,4, 1, 4, 0,10,30.00,40.00,Wednesday
8,11.497104285606982
2,4, 1, 4, 0,10,40.00,50.00,Wednesday
8,11.400449965989277
2,4, 1, 4, 0,10,50.00,60.00,Wednesday
8,11.30346913433309
2,4, 1, 4, 0,11, 0.00,10.00,Wednesday
8,11.269624662856817
2,4, 1, 4, 0,11,10.00,20.00,Wednesday
8,11.23528880941735
2,4, 1, 4, 0,11,20.00,30.00,Wednesday
8,11.20044560142029
2,4, 1, 4, 0,11,30.00,40.00,Wednesday
8,11.165106768356113
2,4, 1, 4, 0,11,40.00,50.00,Wednesday
8,11.129256033315185
2,4, 1, 4, 0,11,50.00,60.00,Wednesday
8,11.092888014932985
2,4, 1, 4, 0,12, 0.00,10.00,Wednesday
8,11.046458972586328
2,4, 1, 4, 0,12,10.00,20.00,Wednesday
8,11.000023243192498
2,4, 1, 4, 0,12,20.00,30.00,Wednesday
8,10.953591434803903
2,4, 1, 4, 0,12,30.00,40.00,Wednesday
8,10.907159535526209
2,4, 1, 4, 0,12,40.00,50.00,Wednesday
8,10.860721104765086
2,4, 1, 4, 0,12,50.00,60.00,Wednesday
8,10.814290659114631
2,4, 1, 4, 0,13, 0.00,10.00,Wednesday
8,10.747237972704554
2,4, 1, 4, 0,13,10.00,20.00,Wednesday
8,10.679850841924602
2,4, 1, 4, 0,13,20.00,30.00,Wednesday
8,10.612125744370579
2,4, 1, 4, 0,13,30.00,40.00,Wednesday
8,10.544061268258636
2,4, 1, 4, 0,13,40.00,50.00,Wednesday
8,10.47564997658505
2,4, 1, 4, 0,13,50.00,60.00,Wednesday
8,10.406905630224742
2,4, 1, 4, 0,14, 0.00,10.00,Wednesday
8,10.353146536932027
2,4, 1, 4, 0,14,10.00,20.00,Wednesday
8,10.298955449315955
2,4, 1, 4, 0,14,20.00,30.00,Wednesday
8,10.244321999842289
2,4, 1, 4, 0,14,30.00,40.00,Wednesday
8,10.189251677256835
2,4, 1, 4, 0,14,40.00,50.00,Wednesday
8,10.133734070631477